                               Psi4 1.3.2 release

  ==> Input File <==

--------------------------------------------------------------------------
molecule h2o {
  O
  H 1 0.9894093
  H 1 0.9894093 2 100.02688
}

set basis sto-3g
set scf_type pk
set scf print 1
set normal_modes_write on

optimize('hf')

e, wfn = freq('hf', return_wfn=True)

molden(wfn, 'struc.molden', density_a=wfn.Da())
--------------------------------------------------------------------------

    Molecular point group: c2v
  Charge       = 0
  Multiplicity = 1
  Basis Set: STO-3G
    Blend: STO-3G
  @RHF Final Energy:   -74.96590119230018
    Total Energy =                        -74.9659011923001799
    Molecular point group: c2v
  Basis Set: STO-3G
    Blend: STO-3G
  **** Optimization is complete! (in 1 steps) ****
    Final optimized geometry and variables:
  Basis Set: STO-3G
    Blend: STO-3G
  @RHF Final Energy:   -74.96590119230021
    Total Energy =                        -74.9659011923002083
  Basis Set: STO-3G
    Blend: STO-3G

  -Total Gradient:
     Atom            X                  Y                   Z
    ------   -----------------  -----------------  -----------------
       1       -0.000000000000     0.000000000000     0.000000025581
       2       -0.000000000000     0.000000016289    -0.000000012790
       3        0.000000000000    -0.000000016289    -0.000000012790

  Charge       = 0
  Multiplicity = 1
  Basis Set: STO-3G
    Blend: STO-3G

    Orbital Energies [Eh]
    ---------------------

    Doubly Occupied:

       1A1   -20.251577     2A1    -1.257549     1B2    -0.593855
       3A1    -0.459730     1B1    -0.392617

  @RHF Final Energy:   -74.96590119230021

   => Energetics <=

    Nuclear Repulsion Energy =              8.9064892593783789
    One-Electron Energy =                -121.8341245591877424
    Two-Electron Energy =                  37.9617341075091517
    Total Energy =                        -74.9659011923002083

  Dipole Moment: [D]
     X:     0.0000      Y:     0.0000      Z:     1.7092     Total:     1.7092

    Molecular point group: c2v
  Basis Set: STO-3G
    Blend: STO-3G
    Molecular point group: c2v

    Geometry (in Angstrom), charge = 0, multiplicity = 1:

       Center              X                  Y                   Z               Mass
    ------------   -----------------  -----------------  -----------------  -----------------
         O            0.000000000000     0.000000000000    -0.071155726203    15.994914619570
         H            0.000000000000    -0.758080658651     0.564646505552     1.007825032230
         H            0.000000000000     0.758080658651     0.564646505552     1.007825032230

  Basis Set: STO-3G
    Blend: STO-3G

  Vibration                       7                   8                   9
  Freq [cm^-1]                2170.0459           4140.0021           4391.0669
  Irrep                           A1                  A1                  B2
  Reduced mass [u]              1.0785              1.0491              1.0774
  Force const [mDyne/A]         2.9923             10.5941             12.2392

  IR activ [km/mol]             7.2377             44.2870             29.9720

  ==> Thermochemistry Components <==

  Entropy, S
    Electronic S            0.000 [cal/(mol K)]        0.000 [J/(mol K)]       0.00000000 [mEh/K] (multiplicity = 1)
    Translational S        34.608 [cal/(mol K)]      144.801 [J/(mol K)]       0.05515177 [mEh/K] (mol. weight = 18.0106 [u], P = 101325.00 [Pa])
    Rotational S           10.673 [cal/(mol K)]       44.654 [J/(mol K)]       0.01700782 [mEh/K] (symmetry no. = 2)
    Vibrational S           0.001 [cal/(mol K)]        0.003 [J/(mol K)]       0.00000103 [mEh/K]
  Total S                  45.281 [cal/(mol K)]      189.458 [J/(mol K)]       0.07216062 [mEh/K]
  Correction S              0.000 [cal/(mol K)]        0.000 [J/(mol K)]       0.00000000 [mEh/K]

  Constant volume heat capacity, Cv
    Electronic Cv           0.000 [cal/(mol K)]        0.000 [J/(mol K)]       0.00000000 [mEh/K]
    Translational Cv        2.981 [cal/(mol K)]       12.472 [J/(mol K)]       0.00475022 [mEh/K]
    Rotational Cv           2.981 [cal/(mol K)]       12.472 [J/(mol K)]       0.00475022 [mEh/K]
    Vibrational Cv          0.006 [cal/(mol K)]        0.026 [J/(mol K)]       0.00000984 [mEh/K]
  Total Cv                  5.968 [cal/(mol K)]       24.969 [J/(mol K)]       0.00951027 [mEh/K]
  Correction Cv             0.000 [cal/(mol K)]        0.000 [J/(mol K)]       0.00000000 [mEh/K]

  Constant pressure heat capacity, Cp
    Electronic Cp           0.000 [cal/(mol K)]        0.000 [J/(mol K)]       0.00000000 [mEh/K]
    Translational Cp        4.968 [cal/(mol K)]       20.786 [J/(mol K)]       0.00791703 [mEh/K]
    Rotational Cp           2.981 [cal/(mol K)]       12.472 [J/(mol K)]       0.00475022 [mEh/K]
    Vibrational Cp          0.006 [cal/(mol K)]        0.026 [J/(mol K)]       0.00000984 [mEh/K]
  Total Cp                  7.955 [cal/(mol K)]       33.284 [J/(mol K)]       0.01267708 [mEh/K]
  Correction Cp             0.000 [cal/(mol K)]        0.000 [J/(mol K)]       0.00000000 [mEh/K]

  ==> Thermochemistry Energy Analysis <==

  Raw electronic energy, E0
  Total E0, Electronic energy at well bottom at 0 [K]                  -74.96590119 [Eh]

  Zero-point energy, ZPE_vib = Sum_i nu_i / 2
    Electronic ZPE          0.000 [kcal/mol]        0.000 [kJ/mol]       0.00000000 [Eh]
    Translational ZPE       0.000 [kcal/mol]        0.000 [kJ/mol]       0.00000000 [Eh]
    Rotational ZPE          0.000 [kcal/mol]        0.000 [kJ/mol]       0.00000000 [Eh]
    Vibrational ZPE        15.298 [kcal/mol]       64.007 [kJ/mol]       0.02437893 [Eh]        5350.557 [cm^-1]
  Correction ZPE           15.298 [kcal/mol]       64.007 [kJ/mol]       0.02437893 [Eh]        5350.557 [cm^-1]
  Total ZPE, Electronic energy at 0 [K]                                -74.94152226 [Eh]

  Thermal Energy, E (includes ZPE)
    Electronic E            0.000 [kcal/mol]        0.000 [kJ/mol]       0.00000000 [Eh]
    Translational E         0.889 [kcal/mol]        3.718 [kJ/mol]       0.00141628 [Eh]
    Rotational E            0.889 [kcal/mol]        3.718 [kJ/mol]       0.00141628 [Eh]
    Vibrational E          15.298 [kcal/mol]       64.008 [kJ/mol]       0.02437921 [Eh]
  Correction E             17.076 [kcal/mol]       71.444 [kJ/mol]       0.02721177 [Eh]
  Total E, Electronic energy at  298.15 [K]                            -74.93868943 [Eh]

  Enthalpy, H_trans = E_trans + k_B * T
    Electronic H            0.000 [kcal/mol]        0.000 [kJ/mol]       0.00000000 [Eh]
    Translational H         1.481 [kcal/mol]        6.197 [kJ/mol]       0.00236046 [Eh]
    Rotational H            0.889 [kcal/mol]        3.718 [kJ/mol]       0.00141628 [Eh]
    Vibrational H          15.298 [kcal/mol]       64.008 [kJ/mol]       0.02437921 [Eh]
  Correction H             17.668 [kcal/mol]       73.923 [kJ/mol]       0.02815595 [Eh]
  Total H, Enthalpy at  298.15 [K]                                     -74.93774524 [Eh]

  Gibbs free energy, G = H - T * S
    Electronic G            0.000 [kcal/mol]        0.000 [kJ/mol]       0.00000000 [Eh]
    Translational G        -8.837 [kcal/mol]      -36.975 [kJ/mol]      -0.01408304 [Eh]
    Rotational G           -2.293 [kcal/mol]       -9.595 [kJ/mol]      -0.00365461 [Eh]
    Vibrational G          15.298 [kcal/mol]       64.007 [kJ/mol]       0.02437891 [Eh]
  Correction G              4.167 [kcal/mol]       17.437 [kJ/mol]       0.00664126 [Eh]
  Total G, Free enthalpy at  298.15 [K]                                -74.95925993 [Eh]

*** Psi4 exiting successfully. Buy a developer a beer!
